/*--------------------------------*- C++ -*----------------------------------*\
| =========                 |                                                 |
| \\      /  F ield         | OpenFOAM: The Open Source CFD Toolbox           |
|  \\    /   O peration     | Version:  v2006                                 |
|   \\  /    A nd           | Website:  www.openfoam.com                      |
|    \\/     M anipulation  |                                                 |
\*---------------------------------------------------------------------------*/
FoamFile
{
    version     2.0;
    format      ascii;
    class       volScalarField;
    location    "0";
    object      Ma;
}
// * * * * * * * * * * * * * * * * * * * * * * * * * * * * * * * * * * * * * //

dimensions      [0 0 0 0 0 0 0];


internalField   nonuniform List<scalar> 
10150
(
3.33159
3.33157
3.33157
3.33154
3.33154
3.33115
3.33124
3.32987
3.32937
3.3175
3.32058
3.26967
3.23458
2.93251
2.5217
2.11297
1.92783
1.90837
1.91128
1.91428
1.9126
1.90961
1.90546
1.90253
1.9009
1.89958
1.89672
1.89422
1.89331
1.89196
1.8894
1.88513
1.88225
1.87967
1.87735
3.33159
3.33157
3.33157
3.33152
3.33152
3.3313
3.33129
3.32936
3.32899
3.31601
3.32068
3.27109
3.23713
2.93998
2.53527
2.12061
1.92907
1.90793
1.91103
1.91451
1.91302
1.91006
1.90606
1.90319
1.90152
1.90026
1.89752
1.89488
1.89389
1.89269
1.89017
1.88576
1.88289
1.88034
1.87823
3.33159
3.33159
3.33157
3.33152
3.33152
3.33132
3.33132
3.32952
3.32921
3.31707
3.32162
3.27419
3.24255
2.95603
2.56513
2.13729
1.93177
1.90705
1.91071
1.91521
1.91399
1.91101
1.90743
1.90448
1.90283
1.90164
1.89888
1.89592
1.89474
1.8935
1.89098
1.88668
1.88362
1.88101
1.87912
3.33159
3.33157
3.33159
3.33155
3.33155
3.33127
3.33132
3.33021
3.33019
3.32047
3.32354
3.27921
3.25114
2.98094
2.61024
2.16248
1.93667
1.90636
1.91076
1.91647
1.91583
1.91277
1.90952
1.90656
1.90446
1.90319
1.90058
1.89756
1.89631
1.89502
1.89312
1.88844
1.88482
1.88205
1.88019
3.33159
3.33159
3.33159
3.33157
3.33157
3.33144
3.33144
3.33054
3.33011
3.32288
3.3264
3.28643
3.26488
3.0135
2.662
2.20312
1.9456
1.90611
1.91125
1.91933
1.919
1.91602
1.91269
1.90936
1.90682
1.90551
1.90304
1.89991
1.89847
1.89733
1.89488
1.89076
1.88715
1.88442
1.88233
3.33159
3.33159
3.33159
3.33157
3.33157
3.33139
3.33142
3.33087
3.3307
3.32542
3.32962
3.29528
3.28282
3.0532
2.72869
2.25682
1.95819
1.90693
1.91358
1.92277
1.92233
1.9182
1.91505
1.91175
1.90892
1.90758
1.90534
1.90231
1.9009
1.90015
1.89854
1.89393
1.89108
1.88769
1.8858
3.33159
3.33159
3.33159
3.33157
3.33157
3.3314
3.33142
3.33094
3.3308
3.32665
3.32898
3.3052
3.30348
3.09975
2.78961
2.3293
1.9699
1.90347
1.91073
1.92199
1.92213
1.91834
1.91528
1.91268
1.9104
1.90933
1.90788
1.90512
1.90362
1.90304
1.90168
1.89814
1.89454
1.89326
1.89133
3.33159
3.33159
3.33159
3.33155
3.33155
3.33137
3.33139
3.33074
3.33051
3.32455
3.32936
3.28803
3.31566
3.11157
2.80928
2.34184
1.93801
1.90184
1.9096
1.92022
1.92135
1.91862
1.91595
1.91376
1.91185
1.91101
1.90987
1.90782
1.90673
1.90686
1.90667
1.90418
1.902
1.89951
1.89942
3.33159
3.33159
3.33159
3.33155
3.33155
3.33134
3.33137
3.33056
3.33042
3.32334
3.32907
3.27689
3.3308
3.10836
2.86795
2.35214
1.9352
1.90227
1.91019
1.91997
1.92157
1.9195
1.91781
1.91645
1.91514
1.91471
1.91407
1.91285
1.91238
1.91194
1.91258
1.91193
1.91116
1.91236
1.91496
3.33159
3.33159
3.33157
3.33157
3.33154
3.3315
3.33129
3.33114
3.32966
3.32896
3.32032
3.31351
3.25578
3.14954
2.9033
2.38826
1.93933
1.90276
1.91409
1.91866
1.92231
1.92051
1.91952
1.9181
1.91752
1.91763
1.91776
1.91739
1.91798
1.91875
1.92063
1.92285
1.92599
1.93147
1.94891
3.33159
3.33159
3.33157
3.33157
3.33154
3.33152
3.33129
3.33119
3.32967
3.32909
3.32104
3.31073
3.27533
3.14731
2.92685
2.40654
1.94796
1.90858
1.91409
1.91721
1.92281
1.92214
1.92072
1.91912
1.91913
1.91968
1.92079
1.92153
1.92289
1.92538
1.92755
1.9321
1.94049
1.95851
2.01961
3.33159
3.33159
3.33159
3.33157
3.33155
3.33152
3.33132
3.33125
3.32999
3.32926
3.32316
3.31263
3.27704
3.1618
2.95547
2.42825
1.96222
1.91419
1.91453
1.91829
1.92348
1.92338
1.92227
1.92048
1.9205
1.92096
1.92235
1.92462
1.92677
1.93138
1.93683
1.94261
1.95465
1.97806
2.04498
3.33159
3.33159
3.33159
3.33157
3.33154
3.33154
3.3313
3.33125
3.33029
3.32899
3.32299
3.315
3.26975
3.17032
2.98108
2.44974
1.98191
1.92032
1.91541
1.91927
1.92438
1.92479
1.92393
1.92276
1.92286
1.9236
1.92481
1.92764
1.93107
1.93567
1.94396
1.95368
1.96748
1.98874
2.04313
3.33159
3.33159
3.33159
3.33157
3.33155
3.33154
3.33135
3.33127
3.33039
3.32929
3.32341
3.31628
3.27811
3.17431
3.02937
2.47146
2.00178
1.92907
1.91598
1.9203
1.92574
1.92603
1.92519
1.92413
1.92426
1.9251
1.92731
1.92988
1.93515
1.94084
1.94862
1.96078
1.97857
1.99529
2.03886
3.33159
3.33159
3.33159
3.33159
3.33155
3.33154
3.33139
3.33132
3.33047
3.32956
3.32453
3.31865
3.28413
3.18972
3.04064
2.51631
2.0243
1.94063
1.91761
1.92184
1.92839
1.92875
1.92784
1.92704
1.92695
1.92772
1.92956
1.93317
1.93766
1.94527
1.95435
1.96428
1.98553
2.00183
2.02864
3.33159
3.33159
3.33159
3.33159
3.33159
3.33152
3.33154
3.33119
3.33109
3.32844
3.32834
3.30447
3.33411
3.18668
3.06494
2.55196
2.06443
1.95327
1.91977
1.92457
1.93033
1.93084
1.92983
1.92906
1.9292
1.9301
1.9319
1.93544
1.94075
1.94677
1.95875
1.96793
1.98712
2.00728
2.02902
3.33159
3.33159
3.33159
3.33157
3.33157
3.3315
3.33152
3.33124
3.33122
3.32873
3.32861
3.3082
3.32208
3.20615
3.09343
2.59436
2.10142
1.96691
1.92091
1.9263
1.93232
1.93279
1.93191
1.93126
1.93172
1.93291
1.9352
1.93826
1.94379
1.9488
1.96043
1.97004
1.98673
2.0074
2.02833
3.33159
3.33159
3.33159
3.33157
3.33157
3.3315
3.33152
3.3312
3.33125
3.32866
3.32856
3.31151
3.32393
3.21052
3.1116
2.64692
2.13447
1.99235
1.92715
1.93074
1.9355
1.93518
1.93387
1.93265
1.93331
1.93474
1.93796
1.9412
1.94747
1.95185
1.9616
1.97221
1.9852
2.00554
2.02597
3.33159
3.33159
3.33159
3.33159
3.33157
3.33154
3.33154
3.3313
3.33117
3.32917
3.32884
3.314
3.32571
3.22396
3.12824
2.71806
2.20217
2.0073
1.93428
1.93985
1.94297
1.94183
1.93974
1.93586
1.93602
1.93681
1.9395
1.94263
1.94942
1.95485
1.96264
1.97403
1.9852
2.00175
2.02118
3.33159
3.33159
3.33159
3.33157
3.33157
3.33152
3.33152
3.33127
3.33139
3.32974
3.32976
3.31724
3.3326
3.23104
3.15421
2.78953
2.28729
2.03191
1.94062
1.94801
1.94864
1.94793
1.9458
1.94255
1.94078
1.941
1.94228
1.94462
1.94988
1.9566
1.96368
1.97443
1.98542
1.99903
2.01554
3.33159
3.33159
3.33159
3.33159
3.33159
3.33154
3.33154
3.33139
3.33135
3.33001
3.32989
3.31795
3.32627
3.25156
3.1873
2.85373
2.38935
2.05499
1.94473
1.9467
1.95077
1.95204
1.95141
1.94911
1.94784
1.947
1.9474
1.94852
1.95135
1.95746
1.96395
1.97401
1.98479
1.99759
2.01147
3.33159
3.33159
3.33159
3.33159
3.33159
3.33155
3.33157
3.33137
3.33139
3.32994
3.32997
3.32066
3.31963
3.26725
3.21985
2.90847
2.49019
2.09109
1.95477
1.94581
1.94911
1.95275
1.95419
1.95461
1.9545
1.95468
1.95498
1.95558
1.95656
1.95977
1.96479
1.97357
1.98328
1.99533
2.00811
3.33159
3.33159
3.33159
3.33159
3.33159
3.33157
3.33157
3.33142
3.3314
3.33026
3.33034
3.32251
3.32164
3.27799
3.2428
2.96838
2.60076
2.1419
1.96565
1.94233
1.9464
1.95011
1.95427
1.95557
1.95807
1.95894
1.96057
1.96227
1.9632
1.96544
1.96802
1.97397
1.9825
1.99275
2.00428
3.33159
3.33159
3.33159
3.33159
3.33159
3.33157
3.33157
3.33145
3.33144
3.33059
3.33074
3.32513
3.32374
3.28962
3.26909
3.02712
2.69639
2.22024
1.98782
1.94056
1.94328
1.94929
1.95498
1.95786
1.95976
1.96335
1.96498
1.96827
1.97066
1.97256
1.97534
1.97776
1.98322
1.99202
2.00157
3.33159
3.33159
3.33159
3.33159
3.33159
3.33157
3.33155
3.33147
3.3314
3.33082
3.33094
3.32738
3.33325
3.30442
3.29813
3.08991
2.80201
2.30947
2.02305
1.9464
1.94716
1.95137
1.95674
1.95962
1.96073
1.9634
1.96763
1.97068
1.97594
1.9792
1.98298
1.98666
1.98882
1.99358
2.00164
3.33159
3.33159
3.33159
3.33159
3.33159
3.33157
3.33157
3.33139
3.33144
3.33094
3.33085
3.32586
3.33492
3.28601
3.32979
3.12882
2.8658
2.39025
1.99548
1.94463
1.9548
1.9576
1.96141
1.96379
1.96386
1.96454
1.96771
1.97113
1.97581
1.98204
1.98637
1.9927
1.99725
2.00126
2.00501
3.33159
3.33159
3.33159
3.33159
3.33159
3.33159
3.33155
3.33155
3.33135
3.33135
3.32992
3.32999
3.32076
3.31717
3.26086
3.21613
2.85068
2.37309
2.03953
1.9314
1.93912
1.94709
1.95758
1.96253
1.96415
1.96537
1.96806
1.97204
1.97549
1.98164
1.98736
1.9934
2.00042
2.00635
2.01229
3.33159
3.33159
3.33159
3.33159
3.33159
3.33159
3.33155
3.33155
3.33137
3.3313
3.33002
3.33019
3.32261
3.31941
3.27166
3.24106
2.90629
2.45287
2.09362
1.95426
1.94099
1.94758
1.95212
1.95486
1.96022
1.96414
1.96747
1.97172
1.97559
1.98033
1.98671
1.99277
1.99991
2.00691
2.01392
3.33159
3.33159
3.33159
3.33159
3.33159
3.33157
3.33157
3.33149
3.3315
3.33114
3.33112
3.32841
3.32624
3.30177
3.30101
3.19039
3.06361
2.48737
2.04311
1.96256
1.9404
1.94739
1.95186
1.9549
1.9563
1.96008
1.96529
1.97053
1.97521
1.97965
1.98525
1.99131
1.99792
2.00533
2.01299
3.33159
3.33159
3.33159
3.33159
3.33159
3.33159
3.33159
3.33154
3.33157
3.3312
3.33127
3.32879
3.32868
3.30813
3.33317
3.18937
3.09854
2.55806
2.06773
1.96794
1.93213
1.94149
1.9477
1.95294
1.95527
1.9568
1.9599
1.96539
1.97261
1.9781
1.98368
1.98961
1.99608
2.00265
2.00991
3.33159
3.33159
3.33159
3.33159
3.33159
3.33159
3.33159
3.33155
3.33154
3.33134
3.33132
3.32944
3.32941
3.31258
3.32372
3.20579
3.12769
2.62059
2.11185
1.98123
1.93031
1.93921
1.94692
1.95327
1.95614
1.95761
1.95959
1.96238
1.9664
1.97244
1.97905
1.98612
1.99322
2.00028
2.00729
3.33159
3.33159
3.33159
3.33159
3.33159
3.33159
3.33157
3.33155
3.33142
3.33145
3.33092
3.3307
3.32581
3.33292
3.28485
3.32572
3.09709
2.84082
2.29395
2.00111
1.9336
1.94034
1.94873
1.95741
1.96034
1.96119
1.96182
1.96323
1.96605
1.9696
1.97399
1.97915
1.98571
1.99342
2.00134
3.33159
3.33159
3.33159
3.33159
3.33159
3.33159
3.33157
3.33157
3.3314
3.33144
3.3307
3.3306
3.32413
3.33044
3.27934
3.33345
3.12519
2.89218
2.39258
1.98765
1.93543
1.94251
1.94749
1.95693
1.96219
1.96518
1.96719
1.96848
1.96926
1.97086
1.97402
1.97787
1.98231
1.98763
1.99374
3.33159
3.33159
3.33159
3.33159
3.33159
3.33157
3.33157
3.33154
3.33152
3.33134
3.3312
3.32987
3.32916
3.32258
3.31227
3.28587
3.15059
2.96001
2.42607
1.97882
1.93166
1.93457
1.94316
1.95391
1.96058
1.96431
1.9677
1.97046
1.9737
1.97564
1.97777
1.97972
1.98289
1.98689
1.99153
3.33159
3.33159
3.33159
3.33159
3.33159
3.33159
3.33157
3.33154
3.33154
3.33137
3.33122
3.33022
3.32917
3.32296
3.31497
3.27223
3.17461
2.9896
2.46498
1.99716
1.93392
1.92809
1.93603
1.94496
1.95234
1.95807
1.96432
1.96907
1.97321
1.97699
1.98024
1.98386
1.98669
1.98969
1.99276
3.33159
3.33159
3.33159
3.33159
3.33159
3.33159
3.33159
3.33155
3.33154
3.33137
3.3313
3.33037
3.32946
3.32428
3.31732
3.28047
3.18247
3.02939
2.50179
2.02477
1.94256
1.92368
1.93251
1.94114
1.94742
1.95076
1.95483
1.96077
1.96814
1.97447
1.97948
1.98378
1.98806
1.99197
1.99609
3.33159
3.33159
3.33159
3.33159
3.33159
3.33159
3.33157
3.33157
3.3315
3.33152
3.33117
3.33115
3.32836
3.32824
3.30738
3.3312
3.17946
3.07147
2.53738
2.05659
1.95576
1.92288
1.93191
1.9404
1.94654
1.94908
1.95064
1.95384
1.95819
1.96467
1.97234
1.97964
1.98592
1.99125
1.99601
3.33159
3.33159
3.33159
3.33159
3.33159
3.33159
3.33157
3.33157
3.3315
3.3315
3.33122
3.33124
3.32848
3.32849
3.3087
3.32081
3.19828
3.08346
2.58331
2.09024
1.96768
1.92286
1.9321
1.94049
1.94646
1.9484
1.94924
1.95102
1.95362
1.95768
1.96265
1.96888
1.97616
1.98403
1.99159
3.33159
3.33159
3.33159
3.33159
3.33159
3.33159
3.33157
3.33157
3.33149
3.3315
3.33127
3.33117
3.32893
3.32871
3.31026
3.3262
3.20332
3.10588
2.62507
2.12093
1.98184
1.92522
1.93421
1.94299
1.94804
1.94903
1.94957
1.95077
1.95292
1.95569
1.95916
1.96324
1.96799
1.97366
1.97991
3.33159
3.33159
3.33159
3.33159
3.33159
3.33159
3.33157
3.33157
3.3315
3.3315
3.33127
3.33122
3.32904
3.32902
3.30985
3.33355
3.21427
3.12663
2.68344
2.16699
1.99532
1.9284
1.93677
1.94529
1.95014
1.9508
1.95121
1.95208
1.95382
1.9561
1.95906
1.9624
1.96603
1.97008
1.9746
3.33159
3.33159
3.33159
3.33159
3.33159
3.33159
3.33157
3.33157
3.3315
3.33152
3.3313
3.33125
3.32927
3.32916
3.31392
3.32137
3.23539
3.13127
2.74786
2.22838
2.00889
1.93382
1.94208
1.94985
1.95418
1.955
1.95549
1.95651
1.95791
1.95969
1.96183
1.96426
1.96714
1.97038
1.97418
3.33159
3.33159
3.33159
3.33159
3.33159
3.33159
3.33159
3.33159
3.33152
3.33154
3.33134
3.33127
3.32951
3.32946
3.31435
3.33079
3.23606
3.15518
2.80337
2.30517
2.02491
1.93365
1.94366
1.94887
1.95409
1.95605
1.95726
1.95909
1.96134
1.96367
1.96619
1.96879
1.97152
1.97404
1.9768
3.33159
3.33159
3.33159
3.33159
3.33159
3.33159
3.33159
3.33159
3.33155
3.33157
3.33135
3.33137
3.32979
3.32981
3.31696
3.33022
3.24709
3.18175
2.84667
2.37478
2.04265
1.93417
1.93961
1.94388
1.9512
1.95428
1.95635
1.95892
1.96182
1.96484
1.96788
1.97101
1.97425
1.97755
1.98092
3.33159
3.33159
3.33159
3.33159
3.33159
3.33159
3.33159
3.33159
3.33155
3.33157
3.33137
3.3314
3.32989
3.32997
3.3205
3.3173
3.26629
3.22883
2.88139
2.43119
2.06567
1.94153
1.93839
1.94266
1.95032
1.95427
1.95632
1.95841
1.96118
1.96426
1.96748
1.97092
1.97445
1.97808
1.98184
3.33159
3.33159
3.33159
3.33159
3.33159
3.33159
3.33159
3.33157
3.33157
3.33144
3.33145
3.33097
3.33095
3.32663
3.32624
3.29632
3.31295
3.17486
3.03037
2.45013
2.01595
1.93628
1.93329
1.93906
1.94826
1.95455
1.95785
1.96004
1.96233
1.96474
1.96754
1.97055
1.97392
1.9774
1.9813
3.33159
3.33159
3.33159
3.33159
3.33159
3.33159
3.33159
3.33159
3.33157
3.33157
3.33142
3.33139
3.33031
3.33032
3.32319
3.32032
3.27946
3.25617
2.96585
2.59748
2.12099
1.93484
1.91551
1.92489
1.93597
1.94641
1.9522
1.95581
1.95985
1.96369
1.96719
1.97051
1.97393
1.97733
1.98082
3.33159
3.33159
3.33159
3.33159
3.33159
3.33159
3.33159
3.33159
3.33155
3.33154
3.3314
3.33134
3.33041
3.3306
3.32489
3.32291
3.28627
3.26008
3.00794
2.64858
2.20412
1.95845
1.91346
1.9226
1.93204
1.94218
1.9477
1.95119
1.95423
1.95814
1.96263
1.9671
1.97152
1.97581
1.97978
3.33159
3.33159
3.33159
3.33159
3.33159
3.33159
3.33159
3.33159
3.33157
3.33157
3.33147
3.33145
3.33077
3.33092
3.32668
3.3271
3.2942
3.28131
3.04894
2.72987
2.24608
1.97392
1.9149
1.92678
1.93915
1.94697
1.9493
1.95067
1.95249
1.95497
1.95798
1.96106
1.96457
1.9687
1.97316
3.33159
3.33159
3.33159
3.33159
3.33159
3.33159
3.33159
3.33159
3.33157
3.33155
3.33149
3.3314
3.33085
3.331
3.32697
3.32771
3.29807
3.29133
3.08373
2.77175
2.33107
1.98508
1.91219
1.92418
1.94223
1.95255
1.95465
1.95476
1.95535
1.95687
1.95896
1.96115
1.96371
1.96684
1.97044
3.33159
3.33159
3.33159
3.33159
3.33159
3.33159
3.33159
3.33159
3.33155
3.33157
3.33142
3.33142
3.33085
3.33087
3.32561
3.33215
3.28633
3.32886
3.10886
2.82769
2.32945
1.95653
1.8979
1.91121
1.93201
1.94315
1.94693
1.94852
1.95052
1.95295
1.95547
1.95822
1.96104
1.96403
1.9672
3.33159
3.33159
3.33159
3.33159
3.33159
3.33159
3.33159
3.33159
3.33159
3.33154
3.33155
3.33124
3.33125
3.32896
3.32931
3.31433
3.31374
3.2358
3.19376
2.69058
2.2051
1.95916
1.90328
1.9129
1.93034
1.93848
1.94128
1.94294
1.94503
1.94744
1.94985
1.95235
1.95495
1.95764
1.96034
3.33159
3.33159
3.33159
3.33159
3.33159
3.33159
3.33159
3.33159
3.33155
3.33155
3.33139
3.3314
3.33074
3.33079
3.32456
3.33054
3.28024
3.33729
3.10837
2.8787
2.3293
1.94104
1.90094
1.91217
1.93003
1.93862
1.94111
1.9426
1.94466
1.94715
1.94971
1.95231
1.95484
1.95738
1.95988
3.33159
3.33159
3.33159
3.33159
3.33159
3.33159
3.33159
3.33159
3.33159
3.33155
3.33155
3.33135
3.3314
3.32984
3.32979
3.31614
3.32438
3.23483
3.16751
2.75986
2.23116
1.9906
1.90912
1.91542
1.92802
1.93465
1.93775
1.93966
1.94161
1.94408
1.94693
1.94995
1.95292
1.95576
1.95851
3.33159
3.33159
3.33159
3.33159
3.33159
3.33159
3.33159
3.33159
3.33159
3.33155
3.33155
3.33137
3.33139
3.32997
3.32979
3.31734
3.3246
3.2403
3.17576
2.78164
2.25552
1.99394
1.91362
1.91956
1.93172
1.93847
1.94104
1.94208
1.94329
1.94518
1.94771
1.95054
1.95337
1.95615
1.95886
3.33159
3.33159
3.33159
3.33159
3.33159
3.33159
3.33159
3.33159
3.33157
3.33155
3.3314
3.33145
3.33065
3.33079
3.32407
3.32873
3.28094
3.34606
3.11469
2.91244
2.35054
1.95455
1.9058
1.91713
1.92921
1.93822
1.94181
1.94345
1.94509
1.94733
1.94989
1.95264
1.9554
1.95822
1.96098
3.33159
3.33159
3.33159
3.33159
3.33159
3.33159
3.33159
3.33159
3.33159
3.33155
3.33157
3.3313
3.33134
3.32949
3.32944
3.31696
3.31461
3.25653
3.1908
2.81863
2.3069
2.0186
1.9114
1.92028
1.92567
1.93331
1.93698
1.93929
1.94161
1.94431
1.94721
1.95031
1.95348
1.95672
1.95993
3.33159
3.33159
3.33159
3.33159
3.33159
3.33159
3.33159
3.33159
3.33159
3.33155
3.33157
3.33134
3.33132
3.32962
3.32969
3.31895
3.31688
3.25507
3.20412
2.83029
2.33138
2.02011
1.91509
1.92333
1.92752
1.93617
1.94005
1.9415
1.94276
1.94469
1.94706
1.94963
1.95227
1.95507
1.95802
3.33159
3.33159
3.33159
3.33159
3.33159
3.33159
3.33159
3.33159
3.33157
3.33157
3.33147
3.33152
3.33082
3.33077
3.32526
3.3247
3.28458
3.30554
3.16199
2.95611
2.38234
1.95852
1.9099
1.91523
1.92553
1.93558
1.93983
1.94154
1.94307
1.94526
1.94777
1.95042
1.95313
1.95589
1.95878
3.33159
3.33159
3.33159
3.33159
3.33159
3.33159
3.33159
3.33159
3.33159
3.33155
3.33155
3.33132
3.33125
3.32959
3.32979
3.3193
3.31808
3.25992
3.21707
2.85579
2.37658
2.04174
1.91665
1.91731
1.92356
1.93238
1.93666
1.93857
1.9404
1.94265
1.94529
1.94807
1.95107
1.95411
1.95733
3.33159
3.33159
3.33159
3.33159
3.33159
3.33159
3.33159
3.33159
3.33159
3.33155
3.33157
3.33137
3.3314
3.33001
3.33021
3.32152
3.31875
3.26469
3.23131
2.86819
2.38802
2.05019
1.92283
1.92216
1.92822
1.93744
1.9421
1.94383
1.94499
1.9464
1.94842
1.9507
1.95336
1.9561
1.95911
3.33159
3.33159
3.33159
3.33159
3.33159
3.33159
3.33159
3.33159
3.33157
3.33157
3.33152
3.3315
3.331
3.33112
3.32713
3.32761
3.29323
3.31775
3.1588
3.00545
2.40984
1.97107
1.90838
1.91065
1.91944
1.93043
1.93646
1.93924
1.94121
1.94317
1.94556
1.9481
1.95093
1.95378
1.95684
3.33159
3.33159
3.33159
3.33159
3.33159
3.33159
3.33159
3.33159
3.33157
3.33157
3.33147
3.3315
3.33115
3.33115
3.32785
3.32778
3.30056
3.32871
3.15956
3.01927
2.42648
1.97407
1.9016
1.90144
1.90823
1.91964
1.9256
1.92827
1.93029
1.9326
1.93541
1.93857
1.94201
1.9456
1.94937
3.33159
3.33159
3.33159
3.33159
3.33159
3.33159
3.33159
3.33159
3.33159
3.33155
3.33155
3.33139
3.33139
3.33001
3.33004
3.32131
3.3178
3.26744
3.24228
2.88891
2.45238
2.06685
1.92006
1.9128
1.91953
1.93014
1.93544
1.93768
1.9393
1.94141
1.94378
1.94642
1.94911
1.95198
1.95498
3.33159
3.33159
3.33159
3.33159
3.33159
3.33159
3.33159
3.33159
3.33157
3.33157
3.33147
3.3315
3.33102
3.33114
3.327
3.3269
3.30345
3.31374
3.17321
3.0314
2.4456
1.99707
1.90856
1.90417
1.91117
1.92321
1.92958
1.93244
1.9343
1.93661
1.93917
1.942
1.94479
1.94781
1.95104
3.33159
3.33159
3.33159
3.33159
3.33159
3.33159
3.33159
3.33159
3.33159
3.33155
3.33155
3.33139
3.33139
3.33006
3.33012
3.32175
3.3187
3.26865
3.24546
2.90028
2.47476
2.07737
1.92261
1.91287
1.92047
1.93177
1.93804
1.94092
1.94301
1.94538
1.94808
1.9509
1.95373
1.95658
1.95953
3.33159
3.33159
3.33159
3.33159
3.33159
3.33159
3.33159
3.33159
3.33157
3.33157
3.33147
3.33149
3.33114
3.33114
3.32801
3.32783
3.30038
3.33461
3.16041
3.03609
2.44482
1.98782
1.90657
1.90035
1.90679
1.91813
1.92414
1.92689
1.92888
1.93099
1.93351
1.93633
1.93947
1.94297
1.94667
2.00484
1.88949
1.80024
1.74339
1.75204
1.76171
1.76617
1.76791
1.77012
1.77241
1.77584
1.77827
1.78064
1.78159
1.78193
1.78209
1.78215
1.78188
1.78131
1.78027
1.77898
1.77741
1.77575
1.77407
1.77248
1.77121
1.76999
1.76918
1.76832
1.76775
1.76747
1.76735
1.76748
1.76784
1.76851
1.76923
1.77008
1.77092
1.77223
1.77338
1.77522
1.77665
1.77841
1.78003
1.78179
1.78383
1.78604
1.78826
1.79064
1.79297
1.79542
1.7979
1.80035
1.80305
1.80565
1.80833
1.811
1.8137
1.8164
1.81911
1.82185
1.82463
1.82738
1.83014
1.83298
1.8357
1.83858
1.8413
1.84417
1.84691
1.84976
1.85251
1.85533
1.85809
1.86091
1.86369
1.86651
1.86934
1.87222
1.87509
1.87795
1.88076
1.88351
1.88622
1.88883
1.89142
1.89388
1.89632
1.89865
1.9009
1.90308
1.90515
1.90716
1.90906
1.91088
1.9126
1.91423
1.91572
1.91719
1.91842
1.91967
1.92066
1.92164
1.92236
1.92303
1.92342
1.92373
1.92371
1.92354
1.92318
1.92231
1.92163
1.92021
1.91933
1.91747
1.9156
1.91283
1.91022
1.90686
1.90366
1.89984
1.89627
1.89224
1.88857
1.88465
1.88121
1.87768
1.8747
1.87176
1.86936
1.8671
1.86528
1.86368
1.86239
1.86136
1.86057
1.86006
1.85973
1.85952
1.86017
2.05492
1.98535
1.89757
1.79634
1.75413
1.73351
1.70011
1.6724
1.68437
1.68488
1.68504
1.68532
1.68542
1.6847
1.68503
1.68682
1.68821
1.69036
1.69245
1.69543
1.69898
1.70297
1.70757
1.71221
1.71649
1.71952
1.72295
1.72693
1.73175
1.73664
1.74192
1.7469
1.75215
1.75723
1.76271
1.7681
1.77357
1.77902
1.78464
1.79029
1.79608
1.80171
1.80743
1.81312
1.81882
1.82449
1.83011
1.83577
1.84123
1.84678
1.85207
1.85749
1.86264
1.86792
1.87314
1.8782
1.88322
1.88808
1.89289
1.89757
1.90223
1.90673
1.91124
1.91559
1.91994
1.92417
1.92837
1.93254
1.93665
1.94077
1.94485
1.94893
1.95299
1.95703
1.96105
1.96505
1.969
1.97283
1.97656
1.98008
1.98355
1.98688
1.99017
1.99344
1.99664
1.99992
2.00307
2.00634
2.00951
2.0127
2.0159
2.019
2.02215
2.02519
2.02819
2.03119
2.03397
2.03687
2.03948
2.04214
2.04463
2.04696
2.04926
2.05124
2.05325
2.05487
2.05646
2.05767
2.05875
2.05945
2.05991
2.06005
2.06002
2.05991
2.05937
2.05848
2.05668
2.05498
2.05232
2.04995
2.04659
2.04367
2.03981
2.0366
2.03255
2.02936
2.0254
2.02247
2.01881
2.01628
2.01305
2.01092
2.00822
2.00643
2.00426
2.00275
2.00101
1.99973
1.99846
1.99745
2.05841
2.04208
1.99819
1.9509
1.89661
1.839
1.8023
1.74906
1.71927
1.70017
1.68872
1.67945
1.67427
1.66924
1.66723
1.66641
1.6646
1.66581
1.66864
1.67422
1.68098
1.6891
1.69785
1.70671
1.71603
1.72531
1.73544
1.74571
1.75625
1.7669
1.77792
1.78862
1.79932
1.80993
1.82003
1.8301
1.8403
1.8502
1.85976
1.86873
1.87724
1.88508
1.89253
1.89947
1.90612
1.91234
1.91834
1.92395
1.9294
1.93454
1.93949
1.94418
1.94874
1.95327
1.95771
1.96202
1.96617
1.97024
1.97418
1.97806
1.98182
1.98551
1.9891
1.99259
1.99604
1.99934
2.00266
2.00579
2.00895
2.01193
2.01488
2.01774
2.02049
2.02322
2.0258
2.02837
2.03086
2.03326
2.03568
2.03799
2.04032
2.04259
2.04482
2.04707
2.04919
2.05145
2.05345
2.0557
2.05766
2.05986
2.06187
2.064
2.06604
2.06813
2.07016
2.07222
2.07418
2.0762
2.07809
2.08002
2.08187
2.08368
2.08554
2.0872
2.08905
2.09057
2.09223
2.09355
2.09489
2.09573
2.09662
2.09687
2.09741
2.09748
2.09723
2.09667
2.09545
2.09408
2.09214
2.09006
2.08765
2.08514
2.08258
2.07998
2.07756
2.07529
2.07335
2.07172
2.07042
2.06956
2.06895
2.06881
2.06892
2.0693
2.06976
2.07078
2.07148
2.07296
2.07365
2.07637
2.06315
2.0684
2.05526
2.03469
2.00737
1.97501
1.94083
1.91046
1.87622
1.8445
1.81945
1.79788
1.783
1.77026
1.76337
1.75789
1.7569
1.75818
1.76127
1.76759
1.77558
1.78507
1.79583
1.80761
1.8199
1.83255
1.84544
1.85829
1.87096
1.883
1.89449
1.90517
1.91554
1.92489
1.93404
1.94224
1.94947
1.95569
1.96127
1.96613
1.97056
1.97449
1.9782
1.98158
1.98486
1.9879
1.9909
1.99372
1.99655
1.99924
2.0019
2.00442
2.00695
2.00952
2.01218
2.01476
2.01732
2.01982
2.02238
2.02486
2.02745
2.02994
2.03256
2.03506
2.03772
2.04024
2.04298
2.0455
2.04831
2.05087
2.05371
2.05636
2.05917
2.06191
2.06473
2.06747
2.07036
2.07302
2.07604
2.0786
2.0817
2.08421
2.08729
2.08982
2.09283
2.09538
2.09832
2.10083
2.1037
2.10618
2.10892
2.11137
2.11394
2.11635
2.11874
2.12105
2.12327
2.1254
2.12741
2.1293
2.13101
2.13252
2.13378
2.13477
2.13546
2.13588
2.13587
2.13573
2.13527
2.1347
2.13348
2.1326
2.13101
2.1301
2.12829
2.12634
2.12385
2.12126
2.11814
2.11495
2.1114
2.10777
2.10404
2.10024
2.09666
2.09306
2.08988
2.08687
2.08424
2.08209
2.08013
2.07878
2.07773
2.07698
2.07683
2.07695
2.07724
2.07811
2.07854
2.08099
2.0607
2.07564
2.08014
2.07554
2.06537
2.05068
2.03257
2.01343
1.99569
1.97808
1.96345
1.94971
1.93915
1.92992
1.92405
1.9199
1.91904
1.91981
1.92178
1.92576
1.93063
1.93657
1.94292
1.94958
1.95631
1.96287
1.96914
1.975
1.98037
1.98515
1.9894
1.99319
1.99658
1.99961
2.0023
2.00453
2.00655
2.00827
2.0099
2.01132
2.01274
2.01405
2.01544
2.01679
2.01825
2.01969
2.02123
2.02277
2.02442
2.02604
2.02775
2.02933
2.03104
2.03279
2.03478
2.0367
2.03871
2.04061
2.04268
2.04464
2.04678
2.04883
2.05102
2.05315
2.05541
2.05761
2.05998
2.0622
2.06474
2.06696
2.06964
2.0719
2.07467
2.07702
2.07981
2.08229
2.08505
2.08764
2.09037
2.09305
2.09577
2.09849
2.10122
2.10394
2.10668
2.10939
2.11213
2.11482
2.11751
2.12024
2.12282
2.12558
2.12807
2.13078
2.13321
2.13579
2.13817
2.1406
2.14287
2.14517
2.14733
2.14951
2.15153
2.15358
2.15537
2.15721
2.15866
2.1601
2.1611
2.16188
2.16227
2.16227
2.16222
2.16198
2.16126
2.16001
2.15845
2.15638
2.15396
2.15121
2.1481
2.14489
2.14148
2.13805
2.13471
2.13148
2.12837
2.12568
2.12293
2.12083
2.11854
2.11697
2.11501
2.11391
2.11219
2.11138
2.10989
2.10927
2.10776
2.10753
2.05164
2.07407
2.08612
2.09148
2.09263
2.08873
2.08257
2.07364
2.06544
2.05677
2.04987
2.04307
2.03798
2.03314
2.03009
2.02776
2.02737
2.02769
2.02849
2.02966
2.03123
2.03303
2.03489
2.03669
2.03835
2.03978
2.04107
2.04207
2.04288
2.04343
2.04383
2.04407
2.04422
2.04428
2.04423
2.04427
2.04432
2.04438
2.04453
2.0447
2.045
2.04534
2.04581
2.04635
2.04705
2.04779
2.04872
2.04965
2.05079
2.05187
2.05317
2.05426
2.05562
2.05692
2.05861
2.06021
2.06202
2.06372
2.06562
2.06744
2.06949
2.07141
2.07363
2.0756
2.07798
2.07998
2.08253
2.08459
2.08723
2.0894
2.09207
2.09439
2.09706
2.09951
2.1022
2.10474
2.10746
2.11006
2.1128
2.11543
2.11819
2.12083
2.12362
2.12625
2.12902
2.13164
2.13437
2.13699
2.13965
2.14227
2.14487
2.14744
2.14997
2.15246
2.15491
2.15728
2.15961
2.16183
2.16401
2.16606
2.168
2.16983
2.1715
2.17304
2.17438
2.17559
2.17656
2.17734
2.17788
2.17814
2.17807
2.17787
2.17757
2.17714
2.1762
2.17489
2.17333
2.17131
2.169
2.16638
2.1634
2.16038
2.157
2.15383
2.15036
2.14735
2.14408
2.14148
2.13868
2.13664
2.13445
2.13298
2.13143
2.13052
2.12957
2.12913
2.12862
2.12848
2.12798
2.12855
2.05038
2.06655
2.08482
2.0947
2.102
2.10467
2.1059
2.10415
2.10207
2.09946
2.09738
2.09539
2.09389
2.09246
2.09146
2.0906
2.09048
2.09067
2.09131
2.09126
2.09119
2.09102
2.09078
2.09027
2.08969
2.08876
2.08784
2.08661
2.08549
2.0841
2.0829
2.08149
2.08035
2.07908
2.07814
2.0771
2.0764
2.07561
2.07513
2.07458
2.0743
2.07398
2.07385
2.07389
2.07402
2.07423
2.07468
2.07507
2.07581
2.07641
2.07732
2.07799
2.07893
2.07983
2.08113
2.08234
2.08385
2.08514
2.08682
2.08818
2.09003
2.09152
2.0935
2.09513
2.0972
2.09899
2.10111
2.10305
2.10522
2.10731
2.10954
2.11175
2.11404
2.11636
2.11872
2.12112
2.12356
2.12601
2.12853
2.13103
2.13359
2.13616
2.13875
2.14138
2.14399
2.14666
2.14934
2.15199
2.15472
2.15736
2.16006
2.16273
2.16531
2.16799
2.17045
2.17307
2.17542
2.17792
2.18015
2.18247
2.18453
2.18665
2.1885
2.19034
2.19191
2.19342
2.19465
2.19574
2.19653
2.19706
2.19728
2.19728
2.19725
2.19696
2.19623
2.19526
2.19374
2.19216
2.18989
2.18773
2.18488
2.18232
2.17906
2.17641
2.17303
2.17049
2.16728
2.16499
2.16211
2.16021
2.1577
2.15623
2.1541
2.15297
2.1511
2.15018
2.14852
2.14775
2.14618
2.14544
2.0476
2.06517
2.07873
2.09263
2.10326
2.10992
2.1149
2.11769
2.11954
2.12065
2.12166
2.12257
2.12342
2.12419
2.12473
2.12523
2.12544
2.1258
2.12595
2.12627
2.12575
2.12478
2.12358
2.12216
2.12051
2.11871
2.11669
2.11464
2.11241
2.11025
2.108
2.10588
2.10377
2.1018
2.09997
2.09822
2.0967
2.09521
2.09399
2.09275
2.09183
2.09086
2.09025
2.08959
2.08929
2.08893
2.08897
2.08909
2.08939
2.08972
2.09036
2.09082
2.09156
2.09226
2.0934
2.09448
2.09588
2.09716
2.09867
2.10013
2.10174
2.10337
2.10508
2.10685
2.10867
2.11055
2.11248
2.11444
2.11649
2.11852
2.12065
2.12279
2.12495
2.1272
2.12939
2.13175
2.13397
2.1364
2.13867
2.14113
2.14346
2.14594
2.14834
2.15083
2.15326
2.15578
2.15822
2.16076
2.1632
2.16576
2.16821
2.17076
2.17318
2.1757
2.17806
2.18054
2.18281
2.1852
2.18736
2.1896
2.19162
2.19364
2.19547
2.19723
2.1988
2.20023
2.20146
2.20248
2.20328
2.20375
2.20397
2.20405
2.20403
2.20374
2.20293
2.20217
2.20052
2.19937
2.19703
2.19535
2.19257
2.19039
2.18739
2.18496
2.1819
2.17946
2.17652
2.17426
2.17165
2.16974
2.16762
2.16615
2.16458
2.1636
2.16255
2.16201
2.16137
2.16116
2.16053
2.16106
2.04123
2.06103
2.07661
2.08851
2.0994
2.10937
2.11695
2.1225
2.12688
2.1303
2.13335
2.13599
2.13849
2.14058
2.14248
2.14384
2.14504
2.14554
2.14609
2.14621
2.1464
2.14574
2.14434
2.14286
2.1409
2.13895
2.1366
2.1343
2.13168
2.12922
2.12651
2.12406
2.12141
2.11912
2.1167
2.11468
2.11257
2.11087
2.10913
2.10776
2.10638
2.10534
2.10434
2.10365
2.10304
2.10272
2.1025
2.10251
2.10273
2.10303
2.1036
2.10401
2.10471
2.10533
2.10642
2.10742
2.10877
2.11
2.11147
2.11289
2.11447
2.11603
2.11773
2.11941
2.12123
2.123
2.12493
2.12678
2.1288
2.13072
2.13282
2.1348
2.13696
2.13901
2.14123
2.14333
2.14561
2.14776
2.15009
2.15228
2.15466
2.1569
2.1593
2.16161
2.16401
2.16638
2.16878
2.17123
2.17361
2.1761
2.17845
2.18094
2.18327
2.18574
2.18804
2.19042
2.19268
2.19494
2.1971
2.19921
2.20124
2.20315
2.20497
2.20664
2.20818
2.20957
2.21072
2.21175
2.21243
2.21296
2.2131
2.21335
2.21332
2.21302
2.21227
2.21159
2.2101
2.2091
2.20706
2.20563
2.20324
2.20145
2.19879
2.19682
2.19406
2.19203
2.18934
2.18742
2.18495
2.18331
2.1812
2.17992
2.17822
2.17731
2.17599
2.17539
2.17437
2.17395
2.17282
2.17293
2.03393
2.052
2.07013
2.08439
2.09641
2.106
2.1146
2.12222
2.12844
2.13375
2.13816
2.14219
2.1457
2.14894
2.15165
2.15399
2.15574
2.15701
2.15773
2.15822
2.15835
2.15833
2.15757
2.15602
2.15429
2.15211
2.14987
2.14733
2.14471
2.14194
2.13913
2.1363
2.1335
2.13081
2.1282
2.12579
2.12351
2.12146
2.11957
2.11791
2.1164
2.11513
2.11401
2.11315
2.11241
2.11195
2.1116
2.11153
2.11155
2.11179
2.11221
2.11259
2.11308
2.1137
2.11454
2.11556
2.11668
2.11794
2.11922
2.12065
2.12208
2.12363
2.12521
2.12685
2.12857
2.13028
2.13212
2.13391
2.13583
2.13768
2.13967
2.1416
2.14362
2.14562
2.1477
2.14975
2.15188
2.15399
2.15618
2.15836
2.16059
2.16283
2.1651
2.1674
2.16971
2.17206
2.17438
2.17677
2.1791
2.18152
2.18384
2.18627
2.18857
2.19099
2.19325
2.19561
2.19783
2.20007
2.20221
2.2043
2.2063
2.20821
2.20999
2.21168
2.21314
2.21457
2.21564
2.21671
2.21731
2.21788
2.21805
2.21845
2.21836
2.21808
2.21737
2.21675
2.2154
2.21451
2.21274
2.2115
2.20947